648
!ProtoMol (built on Apr 19 2005 at 14:48:05) generated this XYZ file by matthey. Time : 0, step : 0.
SPCO	        -1.2400608367014        2.28791749507208       -7.52324446230924
SPCH	      -0.906121474572844        1.43950736523278       -7.94726348281005
SPCH	      -0.483810971120429        2.76157269310895       -7.06221959897095
SPCO	        8.45531137543616       -4.67950866577668      -0.673139696274695
SPCH	        8.29030619197504       -5.08396606565312       -1.59743170190179
SPCH	        9.16504542227222       -5.36179587642717      -0.347566605490754
SPCO	        12.3941194141341        -5.2442779652824       -0.20329307729064
SPCH	        11.6796208317128       -5.70126500942663        0.32949642322868
SPCH	        11.9916676636526       -5.19934616213332       -1.11204510419896
SPCO	        13.7515904702343        7.97560607024743       -1.40657308182166
SPCH	        13.7232715385498        8.88787510525534       -1.79656593630169
SPCH	        13.1031784702944        7.99919672383031      -0.607398667680751
SPCO	        8.25951682852117        1.80018223179603       -4.83357239943412
SPCH	        7.79338063153641        2.67126493790664       -4.85739771638092
SPCH	         7.5243218011922        1.14056758326751       -4.58544414836529
SPCO	        7.92773077992346       -4.32494627664084        5.74939915043506
SPCH	        7.73698220485809       -5.18583278998999        6.27917535393728
SPCH	        8.48243405319652       -3.72632743722575        6.33806963621283
SPCO	        5.71040013874011       -2.48681357681743       -1.82892129714199
SPCH	        5.65870156566362        -3.1017629065236      -0.951203580181789
SPCH	        5.58635147288568       -3.14195531537141       -2.57999062490467
SPCO	        3.46185675561248       -5.79732215239206       -5.94434411396833
SPCH	        3.76463435556354       -6.21736698951612       -6.81520055414525
SPCH	         2.8380727509547       -6.59664181724385       -5.55478409619225
SPCO	        10.9609572087188        7.02230167080359        4.97300313638768
SPCH	        11.6213125216577        6.35970043936552        5.42273161800221
SPCH	        11.2156131232487        8.00446073835394        5.27822132866734
SPCO	       0.587360972934851        6.24438223675848       -8.86011045234035
SPCH	        1.41045141209214        6.76148487147206       -8.58211046602933
SPCH	       0.360640084196653        6.56461958446767       -9.81046720112385
SPCO	        9.73088826942528        6.61375550544335      -0.573867292951765
SPCH	        9.31920882289541        7.36417731975618       -1.08513088650233
SPCH	        9.95348629583779        5.86060836754133       -1.25091220566245
SPCO	        5.22142702610011      -0.458912778958883       -7.34330734131734
SPCH	        4.28378205291456      -0.903962079847745       -7.15742855214104
SPCH	        5.13024796483609        0.30846513272432       -7.97021453403151
SPCO	        2.02550144224426        11.3078116424514       0.592672770323837
SPCH	        2.73830040264563        12.0713803851114       0.382029150124951
SPCH	        2.53388191265031         10.527724041423        1.06485568928077
SPCO	       -4.26531995588519       -4.83527737670587        1.31483452612053
SPCH	       -4.53319008377196       -5.22547857904198        2.22277789983644
SPCH	       -5.11914428036387       -4.79458269820568       0.789775679417252
SPCO	        1.99652975877983       0.596018627374225       -6.72189462198545
SPCH	        1.56374782255463       0.629399877854646       -5.80316998060899
SPCH	        2.78584335572927        1.17600326074104       -6.48058952007516
SPCO	       -1.85237714644398       -1.48305209832011        5.52264645500255
SPCH	       -2.43887507426986      -0.716273486210094        5.82290876835425
SPCH	       -2.13190265142004       -1.54078369488865        4.51302602697806
SPCO	        7.38143855058679        8.49975268302127       -7.13678089051577
SPCH	        7.35077538275184        9.21488260552763       -6.36811938881426
SPCH	        8.38689691590325        8.35167152446324       -7.10137068700991
SPCO	        11.1057731131321        11.5352007127067       -3.24705539349863
SPCH	        10.9925452824044        12.5619785384966        -3.1180463177486
SPCH	        10.7769375710027         11.014342845049       -2.43956763127458
SPCO	        8.61044177756589       -5.60812435139777       -3.17192238658395
SPCH	        7.98517663784153       -6.35042716850665       -3.48682457387347
SPCH	        8.52654062629358       -4.80412265742081       -3.85130220895515
SPCO	       -2.54611406428733       -1.08857215681903       -8.01149439407758
SPCH	       -1.60260963273472      -0.783000078011183       -8.06629146769191
SPCH	       -2.56052869183978       -2.10184717756058       -8.27434659336273
SPCO	        10.1666342686542       -6.56567105549925       0.450390384971122
SPCH	        10.0078809398404       -6.83856484847598         1.4310558513277
SPCH	         10.269012009853       -7.45888065729789     -0.0281877110700413
SPCO	        7.56758883690592        8.88248960246131        9.55772923873486
SPCH	        7.49523258737196        8.81058245385523        10.6277549040874
SPCH	        7.94140866159794        7.95255012478527        9.32224030476237
SPCO	        6.11300559490626       -3.99810886885572       0.594942357128017
SPCH	        6.30439083547936       -4.20609215007515        1.56705346472071
SPCH	        7.02222407874116       -4.07942552847268       0.133164728578665
SPCO	        13.8056173904252       -1.20525697742116       0.988563811587595
SPCH	        13.7484389053831       -1.19231309516318        1.99273207633673
SPCH	        13.8728137667643      -0.306131956355692       0.555981825587893
SPCO	       -3.52045760577728       -1.13429501579024       -2.78969124658589
SPCH	       -3.66853990006647        -1.9573285913168       -3.39979815739975
SPCH	       -4.35126481685177       -0.60482225704803       -2.94460584738734
SPCO	        8.17153063641039       0.227286966778819        11.6743092103635
SPCH	        8.25319815767101       0.685783460155577         12.558458503564
SPCH	         7.4246356943879      -0.424544127823665        11.7814126472983
SPCO	      0.0617194937293877       0.268502332479576        10.4796450631727
SPCH	       0.820846853051653       0.404821838455984        11.1604168687743
SPCH	        0.61890607387716       0.452651084010452         9.6147294585737
SPCO	        2.72864906571384        7.67346754304699        -8.3665159269565
SPCH	        2.53942534517026        8.59667243367171       -8.82654008425774
SPCH	        3.74943515957833        7.59577315522325         -8.153199296111
SPCO	       -2.42756583764865        -4.1963690709479       -6.47997747158492
SPCH	       -2.55158179374613       -3.82268426340034       -7.40312886702981
SPCH	       -1.52363949220924       -4.54060189376352       -6.54664833616369
SPCO	       -4.74278601194662       -1.70919656578654        8.72678395356694
SPCH	       -5.54036550907908       -1.74908281729842        9.33911015035838
SPCH	       -3.96545903531175       -1.72220356078988        9.39168630232805
SPCO	        1.40659269954105        3.75534947124414        10.0384892705572
SPCH	        1.06274416609643        3.58710149815416        9.13382337315128
SPCH	         1.1418941308962        4.75013203860336        10.2456010518418
SPCO	        3.47872324859194      -0.517334490184369        8.71097387042919
SPCH	        3.86282663791895       0.254690241590724        9.17943990216953
SPCH	        2.67711870079025     -0.0762880014044241        8.29027580188522
SPCO	        5.86999080118161       -6.44476021393335        3.31325295474599
SPCH	        5.53702542847832       -7.09272303140797        2.54632256599505
SPCH	        6.71610777067275       -6.94359842380608        3.64681464567196
SPCO	       -3.30641148096358        3.69882125067082        10.8071000784345
SPCH	         -2.935809528189        4.61189272981404        10.8220885229289
SPCH	       -2.56048201562166        3.09501262206557        11.1622767637395
SPCO	        0.93486805557065      -0.753006563129223        6.03288311148714
SPCH	       0.025227660870981       -1.11744439343212        5.71101832926141
SPCH	        1.58980904154419       -1.24021993784101        5.39864250619557
SPCO	        3.03324721278089       -4.93884303863678        9.07486871900893
SPCH	        3.53385952243429       -4.20131041496327        8.54491524716008
SPCH	        2.05578932945663        -4.8982966128504        8.65258394569319
SPCO	      0.0117110265034563        -1.3273262592086        2.51619583023906
SPCH	      0.0425789431353037      -0.787494824290018        1.63374457328545
SPCH	      -0.994287548915665       -1.48660285828005        2.62183825317191
SPCO	        5.36348991693596        6.84700159645261       -7.82017634472798
SPCH	        6.16904975544928        7.46698827348438       -7.71037571313416
SPCH	        5.62987228546331        6.22021411698303       -8.58338055033596
SPCO	         10.375942623249         1.9341383016574       -2.58587265692434
SPCH	        9.95776522462164        1.83427142685098       -3.53123531849434
SPCH	        10.3316698922471       0.994655901769883       -2.13430758801308
SPCO	         2.4444465894384       -8.31056347254389        9.78090958535947
SPCH	        3.32085428204878       -7.80440903648684        10.0376437969109
SPCH	        1.73151643292034       -7.60718581531153        10.0356521033873
SPCO	       -1.91730204129546        3.27734288940423       -2.63555344358824
SPCH	       -1.89947621916886        4.16987286842103       -2.19166962527916
SPCH	       -1.68873655075965        2.62030039842964        -1.8842610952197
SPCO	         10.890976934843        2.49966884184433       -9.42074256401808
SPCH	        10.4800521129803        1.58430358768075       -9.23877276042896
SPCH	          11.75557399569          2.296405069521       -9.89610159941909
SPCO	        12.0840847543518        1.23906884348174        4.13484759395209
SPCH	        11.0862158945489        1.25491083650428        4.03762692441223
SPCH	         12.243281181615       0.930787081871033        5.09566686883241
SPCO	       0.647461375101028       0.306052993871942       -4.23799652175162
SPCH	        0.84928341180228        1.06110761305853       -3.63020263235244
SPCH	      -0.307478682737685       0.419292722455569       -4.62213352083086
SPCO	        11.4581502253018        3.28826351786287       -6.77471328050195
SPCH	        12.3436046424171         2.9893198980773         -7.181002011801
SPCH	        10.8874173983303        3.27413607160027       -7.60983733690835
SPCO	       -1.47070017904119        9.11044323373461        6.44426304702674
SPCH	       -1.54719377216176        10.1235941613165        6.38662451267078
SPCH	      -0.843849807056552        8.84823675517769        5.72376449732318
SPCO	        5.61538211614507        4.25521173304456        2.02899499845519
SPCH	        6.57776700111166        4.01849304758695        2.06993694134251
SPCH	        5.26357691475267        3.37910661740948         1.7180613980968
SPCO	        -3.1656105832404       -5.65307157664321        6.51460615956799
SPCH	       -2.55590546228458       -6.37055560583035        6.28915522564701
SPCH	       -3.54136510772542       -5.38635862276028        5.59136991826249
SPCO	        4.31584639341035      -0.489977606461106       -2.73581993604798
SPCH	        3.51446110683985      -0.881327642330275       -3.22690590186367
SPCH	        4.81360566871277       -1.31306834552131       -2.35755935116442
SPCO	         10.065035802201       -7.17995298829687         3.1032116319707
SPCH	        11.0033302200259       -7.32911816084789        3.28486199636619
SPCH	        9.78429327426236       -6.26228636111202         3.5105463014359
SPCO	        8.97637717116656       -3.87210128415184       -5.09274956383426
SPCH	        9.20889751598355       -4.10512758199348       -6.11377341124105
SPCH	        9.47370161060839       -3.04393581107921       -4.86093475699021
SPCO	        11.0356024654666       0.984695444003495       -5.44610072764714
SPCH	        11.4400132272852        1.75119605619156       -5.96157364349756
SPCH	        10.0050787844772        1.15396088248967       -5.52451583850266
SPCO	         12.641173976946       -1.67644746268193       -8.30941015950205
SPCH	         13.168726306133       -1.29274890750782       -7.59375730278398
SPCH	        11.7707077767887       -1.10096920931062       -8.39569010567585
SPCO	        8.43455015232676        2.68023547501616        1.68106397343194
SPCH	        9.12420331125218        3.46256304736429        1.46231605670444
SPCH	        8.36097203175771        2.18568625633627        0.81036536657909
SPCO	       -4.47008409456087        7.10404584673556       -7.08450494129001
SPCH	       -4.88455359729241        6.20484741321033       -6.95379735787579
SPCH	       -3.42073639793556        7.01616582580766       -7.06722252584333
SPCO	        11.0643091082579       -4.89699916282259       -2.74083447903908
SPCH	        11.4964137945517       -4.64681672765482       -3.62897217214595
SPCH	        10.0963445100998       -5.12720498496925       -2.96435504297377
SPCO	        7.51566921230006      -0.156666648392986        6.14060069257585
SPCH	        8.12350282797206      -0.170043837739471        5.34686525565011
SPCH	        6.52933314598473      -0.431580769842298         5.8096354002768
SPCO	         7.1753058720747        5.94917007000216        5.64594965063581
SPCH	        7.86237758676002         5.6203810269215        4.91885809755985
SPCH	        6.38120874535186        5.28149619327263        5.60481166688035
SPCO	        10.3177905828465        4.61939876768681       -2.34439820912231
SPCH	        10.0505927054876        4.76228485378091       -3.32150205972601
SPCH	        10.3707760065105        3.58438761279863       -2.24248003374257
SPCO	        7.55549831242113       -6.62516829322215        7.62445634222174
SPCH	        7.28387431954411       -7.37555305931423         7.0148979021132
SPCH	        7.01030046184945       -6.74589951962335        8.47733658851252
SPCO	       0.858881763671895        5.59061590294102        1.40397897137151
SPCH	       0.170017714162913        6.37512748037851        1.58536925269942
SPCH	         1.0626443437252        5.14557694231074        2.29852497726876
SPCO	        1.33218460403123         5.3434512174605        6.56444636553901
SPCH	        2.26215358177751        5.48103785864018        7.07077533177229
SPCH	       0.792831519945108        6.08396759248448        7.00262572287505
SPCO	        2.44976687470789       -8.63373656217591       -2.22283983347031
SPCH	         3.4890497666763       -8.70996361722688       -2.12778991966525
SPCH	        2.10270400899169       -8.37835679934006       -1.29296635032936
SPCO	       -1.77893105741236        5.57230289993802       -1.37529441517416
SPCH	       -2.06151622408972        6.28587425082469       -2.03338989129852
SPCH	       -2.56896568624025        5.49824638159085      -0.716629267756619
SPCO	        9.60596369827392      -0.552316913773107        7.97824932261944
SPCH	         9.7203967785973       -1.52000591147232        7.75070120309117
SPCH	        8.73998636653118      -0.284715412393031        7.49236014800722
SPCO	        9.45595321886143       -2.86408660445528         1.3151317855669
SPCH	        10.2816891429832       -2.46141100126226       0.818139594923549
SPCH	        9.05957170818734        -3.3389944157514       0.507995584708565
SPCO	        10.1432200121972       -7.02401860214117        7.57235477774149
SPCH	        10.1010271608479       -8.00634139654612        7.86511178065428
SPCH	        9.15719324191846       -6.74650336385065        7.68227548060331
SPCO	        7.72029313171529        10.4074185061482       -5.33265053460775
SPCH	        7.13704121465037        11.1335727581224       -4.86469293083825
SPCH	        8.57993425358037        10.9031353966722         -5.664094399517
SPCO	        6.83340913419382        10.0879758570279        6.80986868133241
SPCH	        7.23499328915414        9.79341094884633        7.68862317830273
SPCH	        7.43187575897978         9.6061522621074        6.07829163614224
SPCO	        2.22668157439667       -3.89847217230178        5.73686098311394
SPCH	        2.27416294114698        -3.3401829984413        4.88075619742392
SPCH	        2.75882247281845        -3.4752015545063        6.50585011346672
SPCO	        6.60286486406182        3.11940293604801       -2.20943194489658
SPCH	        6.89059421716907        3.86670770036401       -2.83485660051704
SPCH	         6.0921050529297        3.46863539755392       -1.43423170204784
SPCO	        4.57828852314917        2.23351783222916       0.756117686934937
SPCH	        3.86541981430113        1.83008998422969       0.169558366330981
SPCH	        5.21540374584568         1.4392782087264       0.861556283995491
SPCO	        5.32353050132515        4.11678776410429        5.69874579235922
SPCH	        6.08760019412027        3.71659573695733         6.2671897047597
SPCH	        4.66508294804647        3.28463227942451        5.69047620884737
SPCO	        -4.7267183149812        11.1251277757684       -6.73373106528698
SPCH	        -3.8205504898331        11.1741964304427       -7.26336033525342
SPCH	       -4.85763378364051        12.1673077794103       -6.46860956353697
SPCO	       -4.08168892643848       -6.30764628965976          8.995814781578
SPCH	       -5.02789717740621       -6.73082696177314         9.0150227641048
SPCH	       -3.93625294904786       -6.06466092105169        7.99678424161324
SPCO	        9.59402453561503       -4.62102986963499        3.63915959133438
SPCH	         8.9971472933211         -4.065914243328        4.28416904653404
SPCH	        9.62506148831634       -4.18357322036966        2.75744787830806
SPCO	       -6.42637453066784       -3.55573708128469       -4.77437705946345
SPCH	       -5.62516113366573       -3.24843188737531       -4.22443187783446
SPCH	       -7.18417483627091         -2.896388719723       -4.83681699079804
SPCO	        6.12951349946796      -0.183689942059824        1.07070522245348
SPCH	         6.9463191836128       0.206225679498165       0.572350131851912
SPCH	        6.41666945098149       -0.24070441632714        2.07146533794785
SPCO	         7.2357816589366       -6.75375126921567       -8.26254012007688
SPCH	        7.93420093444208       -6.02744053281855       -8.10336014981027
SPCH	        7.30734298888842       -7.37779954246981       -7.48249488228331
SPCO	        2.18426890757876       -1.99284630384226        3.96854234340032
SPCH	        3.04470887268991       -2.01577856987126        3.35857864242704
SPCH	        1.42774770072893       -1.78704142882504        3.31030543039321
SPCO	        1.13990511531212        6.87029060718042       -4.30579421833206
SPCH	        1.09817837979719        7.28741316914518       -3.38273560568111
SPCH	       0.174002695575597        6.44742539181549       -4.33468683255641
SPCO	        4.92924379121383        8.90096853539677       -3.82468058684165
SPCH	        4.34634717206666        8.52448854114997       -4.56265867366702
SPCH	        5.03015226863999          9.858400790437       -4.09165243267776
SPCO	         8.9081465264225        5.36703686861546        3.72779390953793
SPCH	        8.95748281399331        5.16011823934682        2.77112031614355
SPCH	        9.64703258271961        6.02415904329588        3.90704049448381
SPCO	        10.6634150267832        4.22601279499627        7.56393274305742
SPCH	         10.630915141885        3.65996786396669        8.41318361309194
SPCH	        9.99226681431502        3.85445745997073        6.85258577054838
SPCO	        10.5698011747813      -0.562466751486303       -1.88732751657562
SPCH	        9.64553811942856      -0.966608331486342       -1.95387911867544
SPCH	        11.1386077862067       -1.05036405987759       -1.22343041040028
SPCO	        5.66650996158134        1.38953544945224       -4.00831293084806
SPCH	        5.30916990561796       0.635094548293742       -3.40569244250669
SPCH	        6.13116990518604        2.11414988034562       -3.40830991222812
SPCO	        4.19644404261754        1.97564230641476       -6.28916489949306
SPCH	        4.31029001837563        2.98880652670077       -6.08698675506888
SPCH	        4.67349367142003         1.5174615821257       -5.47055131943511
SPCO	       -2.01261359709557        6.36356763561416        11.8785114295511
SPCH	       -1.15214559989499        6.56612609901229        11.3954784643432
SPCH	       -1.72878218165797        5.85763550376836        12.6934236500763
SPCO	       -1.53451203325165        3.21236245928848        1.62843967817526
SPCH	      -0.860112848309342        3.96073617930965        1.82674768804797
SPCH	       -2.30259827375785        3.51623560236541         2.1047043110715
SPCO	       -3.73331516871464       -3.34850541523597       -4.13976001665783
SPCH	       -3.34932869108348       -4.05740476867122        -3.5030918808648
SPCH	       -3.27248575872119       -3.46223477594975       -5.03386987958767
SPCO	       -3.09924731537587        7.67821764945616       -2.50148373723483
SPCH	       -3.39517751561732         8.1270603307256       -3.32236321172024
SPCH	       -4.03514773020026        7.66565209390311       -2.02610445580321
SPCO	      0.0666658635756538       -5.73166104671618       -2.81588391283716
SPCH	       0.907760856307273       -5.18737340585172       -2.64496570571495
SPCH	       0.363918102608426       -6.55560291750872       -3.29909305424915
SPCO	       -2.75995378750976        3.43233467298381        6.33302811077583
SPCH	       -3.21792481089819        4.06948819862283        5.70335858891676
SPCH	       -3.17047358337026        2.55478883552352        6.04147491601927
SPCO	        4.16288870747679        10.0979599258487        5.79541367916778
SPCH	        3.88889939984472        11.0435502223629        5.53118944029956
SPCH	        5.17395206754753        10.0724273472771        5.99712656418368
SPCO	       -5.02170669082854        1.69867146577218       0.666422259636933
SPCH	       -4.03932730958197        1.73446051897377       0.442450407478369
SPCH	       -5.45895958669507        1.96859460613854      -0.229024041413916
SPCO	       -2.58172095107093       -5.05985257530452       -2.15831508158665
SPCH	       -3.06911033570615       -5.90447071282276         -1.879940420224
SPCH	       -1.61754998573252       -5.39155316228057       -2.42321498006463
SPCO	        10.1674228125535       -8.90117531268132      -0.976548996207181
SPCH	        9.54692873465557       -9.38502926619514        -1.6787980421407
SPCH	        10.8563755360478       -9.54375065572547      -0.511340506900163
SPCO	        2.87485509945764        8.41970588524402        -5.5902571831423
SPCH	        2.17865355848695        7.81173641095902        -5.0709886741167
SPCH	        2.78647085765161        8.16682502886257       -6.54149575698331
SPCO	       -5.38229050953558      -0.849367599873735        3.64123766473854
SPCH	       -5.79798606170918      0.0648975968619582        3.64148634519725
SPCH	       -5.92158625162793       -1.31976320080651        4.33732011351671
SPCO	        11.4623023513725        7.55378439496359       -4.71820589186771
SPCH	        12.0567986571006        8.34289869554605       -4.56004674250912
SPCH	        11.1119671584452        7.24572543772051       -3.82237671282628
SPCO	       0.841109883852421        3.81321829300673       -6.48686840063514
SPCH	         1.6952346863171        4.07457260544862       -5.94191421598771
SPCH	         1.0578886932362         3.8549564582629       -7.50729532505698
SPCO	        13.4254801123566       -8.87769702625857       -2.86150955290882
SPCH	        12.6983645919433       -8.23440388981004       -3.16861450252703
SPCH	        13.6699827016174        -9.3261976402035        -3.7406622648228
SPCO	       -2.47550776522563        11.0999687997618       0.443620945156496
SPCH	       -3.15849430417071        11.7756395038071     0.00734433282423974
SPCH	       -1.76538764453494         11.725371563537       0.792300293337854
SPCO	       -4.97329100693303       -5.27867322128115        -6.3904409439747
SPCH	       -5.56567055138187       -4.68561117309026       -5.81686666417464
SPCH	       -4.01956486786187       -5.25046062111043       -6.09947290894259
SPCO	        9.22153310088889        3.29329469001926        5.47321078488974
SPCH	        9.23382364927016         3.9807899264382        4.70118135498264
SPCH	        9.24734440227608         2.3900814663047        5.00184429709458
SPCO	         6.6779275052104        2.77134614001093        7.49941182624832
SPCH	        6.44343968229647        1.81964682394406        7.80760579136466
SPCH	        7.50694863707044        2.71611125986278        6.88988550826332
SPCO	        7.70405320212406       -9.27659245469974        2.58668480597361
SPCH	        8.60485961123704       -8.93917165460653        2.26150036725834
SPCH	        7.80478359782866       -9.80429971758691        3.42086018742269
SPCO	       0.574030370128541       -4.85043298201577       0.456732538576348
SPCH	      -0.323056233113589       -4.34585740805782       0.256855354339387
SPCH	        1.28651765475707       -4.13926311157215       0.552681333936457
SPCO	        15.2410626255704        10.6964669617284        2.78825371813536
SPCH	        15.6898094990547        10.9425169515019        1.89507883700094
SPCH	        15.9539749485989        10.7468899161163        3.52216478875193
SPCO	        5.05855894678391       -7.88406872019803       -1.08408861655471
SPCH	        5.41541871883967       -8.21559533003512      -0.204826811246374
SPCH	        4.53730091879896       -7.08286656136615      -0.807394782515286
SPCO	       -6.29284641470247       -3.42476323645283        6.90743087947818
SPCH	       -5.77894006338019        -2.6578871041569        7.40677553556234
SPCH	       -5.90700821231537       -4.30432336373658        7.23639471625333
SPCO	       -4.35624137908434        3.76484270598531        8.27893998305921
SPCH	       -3.96599660414854        3.78924600580145        9.22317312198065
SPCH	       -3.56283734183543        3.60862941233705        7.65160421220023
SPCO	       -1.65779056394307       -1.26310080174061      -0.794711136997689
SPCH	       -1.93515621829139       -2.09808171288856      -0.201775549588854
SPCH	       -2.40024254027232       -1.21905032713076       -1.51827203413896
SPCO	        3.49900601488889        6.43580178254913        7.70560422936524
SPCH	        3.45674696987712        7.41806538943974        7.57673727378878
SPCH	        4.40629975650678        6.25873141181155        8.11222861636827
SPCO	        9.90637910173248       -3.20009098829359        7.20034444941574
SPCH	        10.8440813373269       -3.31598792801798        6.86584971678391
SPCH	        9.70058626473283        -4.0641124924527        7.61979317986198
SPCO	        6.35206844243343       -7.20102168028553       -3.67446527267431
SPCH	        6.31275677549879        -7.6538810509499       -2.77626766867124
SPCH	        5.87165679390759        -6.3267883444272       -3.45742133596579
SPCO	        13.4573331464376        1.55746891360683        8.82984302121604
SPCH	        13.9200895696696        2.27292371418173        8.30646435747558
SPCH	         13.933195224118        1.64540009065058        9.73195002178464
SPCO	        2.37131255866047        1.10828670033439         3.5196325942705
SPCH	        1.81748532278523        1.48814220713233        2.77318426895926
SPCH	        1.85884019917933        0.51217735283677        4.17299259980094
SPCO	        9.67308671830796       -5.04247956190935        11.8183997998679
SPCH	        10.5711107302161       -4.78969603389096        11.5092344063881
SPCH	        9.87586083334732       -5.84110134741998        12.3823586731573
SPCO	        10.5188480913849     -0.0943740778017556        10.4233825014935
SPCH	         10.206827098184      -0.282597367973931        9.44875185552052
SPCH	        9.62833092662039      -0.015027616151667        10.9783813903989
SPCO	        12.0970757553292        8.16889483863685        8.76001554877426
SPCH	        12.9124405045606        8.61806516168331        9.25622617223647
SPCH	        12.3365486757927        7.18594944057674         8.6244406413927
SPCO	       -2.88208188717792        5.88531517154452        2.31116729610695
SPCH	       -2.06013610698342        6.54511735098175        2.29976604857603
SPCH	       -3.21271608665235        5.84250059425068        1.33559633230005
SPCO	        8.09341699887336        8.58053254144453        4.91875771098547
SPCH	        7.46381426422518        7.86185020676711        5.15502054533705
SPCH	         8.9931410065652        8.15993954579235        4.96242121824432
SPCO	       0.331841854739893        7.40407216213069        7.91814328335985
SPCH	        1.10460410253688        8.01236985526966        7.89494576829797
SPCH	      -0.407614030973689        7.93826423466337        7.40828712496351
SPCO	       -4.16551947351242     0.00627677160586458        6.41501046238946
SPCH	       -5.10672894227062       0.217832016557268        6.04291031463917
SPCH	        -4.4699932755988      -0.616584917717982         7.1194165476799
SPCO	      -0.283681112275662       -7.03742276435769        1.50791139200826
SPCH	      0.0574819322875412       -6.15172046784938        1.05952318694433
SPCH	        0.49110775079953       -7.65849592873724        1.45545889303656
SPCO	        2.29100819789138       -3.49504778525415        13.2822282173635
SPCH	        2.35274391576258       -2.82659487139642        12.4891955219815
SPCH	        2.82085173675117       -4.33997412856719        13.1213387365292
SPCO	         5.4323979622948         10.689639293719         1.6018221536129
SPCH	        6.35215306197659        10.3276323344795        1.84449052095331