320
!ProtoMol (built on Mar 12 2008 at 09:32:22) generated this XYZ file by tcickovs. Time : 30, step : 30, minimal Image.
C3	       0.271309942369055        4.44616609362157        18.8678756654053
C2	       0.194995981278468        3.08204929696581        18.2330180302754
C2	       -1.22133873824875        2.57677093053608        18.1316875046281
C2	       -1.38903029881099        1.04285758375879        18.3888206701839
C3	       -2.83767506022206        0.58412538769861        17.9124258652305
C3	        8.85816210819664      -0.538063847743531         6.9274943705237
C2	        8.16915794596928       -1.07410153864619        8.20299473376958
C2	        7.67285128978789       -2.48910783673607        8.08533083639586
C2	         7.4024302516141       -2.99419255147122        9.44814812584516
C3	        6.80596218542583       -4.42342370667024        9.32882540015927
C3	      -0.524041929972619        4.62129844416722        8.86310062420458
C2	         -0.584558074465        3.53426220224841        9.98442038981219
C2	       -2.02298579564526        3.02248837588852         10.135169234266
C2	       -2.02044071541007        1.73030631023455        10.9614645913358
C3	       -1.21655712932416       0.520947344604251        10.3111617152504
C3	       -1.58019587050942      -0.435848492119502       0.734359837778785
C2	       -2.74575485860838       0.194607142526659     -0.0532829560838727
C2	       -3.83036442749895      -0.912807104513127      -0.283713070787332
C2	       -5.11258277154904      -0.202439278357564      -0.966628936428896
C3	       -5.90450406292642       0.728575605837066     -0.0393872086332136
C3	        14.2605319896962        16.7313729366354        15.1057409241863
C2	        15.7782940504414        16.6699469237993        15.0763143556826
C2	        16.1699177495782        15.2551155511974        15.5417326629508
C2	         17.736249568293        15.1695069353137        15.6135106789216
C3	        18.1285807658577         13.755396208601          15.96847404225
C3	        2.57203966904956        8.74026370003832        16.9624366875811
C2	         3.2456551687606        8.74234507824208        15.5117572235716
C2	        4.08975486699615        7.50894916123936        15.1919106212942
C2	        4.97203827637228        7.64411855538613        13.9844054854541
C3	        5.91008954550572         6.4505350345532        13.9056682531683
C3	        7.66123266198821          2.586346319898        11.7383757136671
C2	        6.96825070612754        3.39131842131785        10.7258926458081
C2	        7.95923188847127        3.84072127345596        9.73063580078943
C2	        7.30458167544212         4.7490527250814        8.71778753979009
C3	        8.25623556099075        5.07315483400719        7.58697674117272
C3	       -2.40022599537836        18.8807089641777        1.16757424635171
C2	         -1.503552110576        18.1789008269126        2.22589976744358
C2	        -2.1905773850575        17.0401723898015        3.01049615625228
C2	       -1.11876368631454        16.3297106899409        3.76542362190211
C3	       -1.66182389075807        15.4416320629331        4.78166411996364
C3	       -3.59364412779793        6.61139884982865        11.0844480670289
C2	       -4.94075126339995        6.50311184345175        11.8134723217515
C2	       -4.91235265636176        5.53474554906936        12.9828941477453
C2	       -4.62126029441021        4.24098895505343        12.2813248715651
C3	       -4.71507273816307        3.10309146648009        13.2491218607305
C3	       0.970375132322981        7.77784998690289        8.87713537303436
C2	        1.83289750998524        7.28724052382027        10.0049362555784
C2	        2.04171062997706        8.49076039346193        10.8607926944268
C2	       0.716332863509838        8.56602469361176        11.7726853971358
C3	        0.66635614553537        9.83975154939219        12.5754163199705
C3	       -2.89071405658326        10.3707791999491        15.0095146360511
C2	        -3.6049802973126        10.1266006332252        13.6428813300568
C2	       -3.98268313617811        11.4058122721189        12.9067990122487
C2	       -2.73517084399193        12.1006599199269        12.4266936839711
C3	       -3.02033594401614        13.3038829781867        11.5635679763843
C3	        12.8253260261017      -0.280292321362234        3.56327258631094
C2	        14.0323345290583       0.481018750850757         4.1134693201801
C2	        15.3064963073277      -0.054783046463711        3.38381245977872
C2	        16.5770139343742       0.401429631562061        4.08766490645146
C3	        16.7001526159278        1.89527184451271        3.93375670205515
C3	        6.24338028412279        13.7229014914444        3.48827451190574
C2	        7.04862752946919         14.999568797573        3.81982538444984
C2	        8.42731187256195        14.6099164138451        4.23731148438451
C2	        8.50738468288032        13.2033477205169        4.90644715002532
C3	        9.81191847411776         12.973651423158        5.68658475520065
C3	        6.81677059307853      -0.456621922843385        16.0200341243306
C2	        6.50937581864893      -0.390335743918764         14.605506202298
C2	        5.28245476768438       -1.32137387765363        14.1364929686744
C2	        4.76616783796397       -1.00765458789252        12.7786001092754
C3	        3.66786794403757       -1.96861381176444        12.2555552760571
C3	        16.3281302604257        14.8117671429271        11.5635384810641
C2	        15.9488754958434         15.394276616244        10.2645023708778
C2	        15.8870524015063        16.9438310822117        10.4215285780792
C2	        15.9508488930284        17.6693347282388        9.05669451809868
C3	        17.1147788365827         17.092156925579        8.26661196687018
C3	        8.59843503649049         13.484255748535       -3.30130639505489
C2	         8.8974299372352        12.4037107168795       -2.30132296082537
C2	        9.04987112771037        12.8232839399886      -0.766512629420963
C2	        9.91365406605342        14.0998383546273       -0.84192395811179
C3	        9.97119423082146         14.556151878006       0.577606121317592
C3	       -1.04605697599934        7.24946162237925        16.1249304813015
C2	       -2.42434256624447        6.42757318395009        16.1167479229973
C2	       -3.36827500328864        7.12466855880926         17.003306602736
C2	       -2.66614649049426        7.12486413814187        18.4052975202037
C3	       -3.36792706188505         7.6519426812298        19.6665936452429
C3	        14.6101095485415        14.1243792913354       0.777048696518071
C2	        15.4040001406786        14.4926391361968      -0.433266902561075
C2	        14.7362147748377        14.0316471208924       -1.68803672822383
C2	        15.2750102363634        14.4138000964115       -3.06115115207686
C3	        16.7598939607225        14.1236617759095       -2.96480992428116
C3	        11.2363603074726        6.51070065558423        19.8520910938958
C2	        9.94408764218392        6.51786623571446        19.1460384561439
C2	        9.66462747900497        5.14479945181353        18.5739194285074
C2	        8.44702803422455        5.19467950398789        17.6330549192498
C3	        7.83027141813202        3.81517753696411          17.66128688293
C3	        5.88706176906411        11.1519090823103       0.570508345853076
C2	        5.27958865272194         11.649329716752       -0.79451423676936
C2	        4.03141917652535        12.5343227412786      -0.712056662715178
C2	        3.67199653933208        12.8958208288055       -2.16053386600844
C3	        3.05555233007678        11.8123016589772       -3.01054255778313
C3	         8.3122837734384        2.28004742231898        3.35241209219779
C2	        8.78714822739989       0.900089894211343        3.07901878826505
C2	        7.84856200188356      0.0140964806575276         2.1929697664386
C2	        6.45292523338157      -0.252275924062296        2.72741982220794
C3	        5.55724095850263       -1.16407852214054        1.78823508689095
C3	      -0.226275805806336         19.172739702759        20.8776339466463
C2	     -0.0948263719373014         19.192662753828        19.3686138783063
C2	        1.31268301857624        18.5569568114577        18.9509614474247
C2	          1.452485161427        17.2118835665492        19.6463101882967
C3	        2.57093538284047        16.3767503297574        18.9288160048699
C3	        4.68699897238983        3.21593952623106       0.735854949393985
C2	        5.42478261575072        4.56624352889619       0.611078679462298
C2	        6.74135405625713        4.19860445758164       -0.12066629297691
C2	        7.57432282023773        5.31610091855577       -0.78973381620999
C3	        7.94518993834323        6.31643824642351       0.350510618940507
C3	        14.7553075760579        5.46630248550256        17.5562532129561
C2	        15.3992739925919        5.63685547033598        19.0119195219708
C2	         16.394176479758        4.49099397413497        19.2676015423075
C2	        17.0039248993589         4.8480517761061        20.5820635041239
C3	        18.1859513497139        3.85545845620275        20.9162820847566
C3	      -0.235345549539642       -2.56110383366695        12.4222089162346
C2	     -0.0231805136076018        -2.2621732979933        13.9045412901575
C2	      -0.354664135933591      -0.823928857016338        14.3776608259674
C2	       0.280620367871146      -0.836786367820616        15.8071790581459
C3	        1.76265497186548      -0.633134823826389        15.6629459430294
C3	        11.2400162023737       -0.48148588636398      -0.861136169824267
C2	        10.6161477276473       0.395063523606634       -1.98824610804758
C2	        9.74674388143686      -0.399395445133429       -3.00192867764744
C2	        10.8529066572658       -1.31955411895851       -3.63275495859717
C3	        10.3320457169029       -2.12362599870567       -4.80388743386276
C3	       0.258464395205231        2.70441100022553        1.78359455189165
C2	       -1.02815874952436        3.31646948012099        1.41044266007928
C2	      -0.715628242888318        4.27538408819922       0.173944918463288
C2	       0.481564318526553          5.213466335849       0.521983821260377
C3	        1.04037258354154        6.05249729659065      -0.714773332680227
C3	        11.6222300759467       -4.01057429993369        1.90324384902348
C2	        12.9064132803209       -3.33178312345635        1.33867763259956
C2	        13.5493673538108       -4.51301019900791       0.558535445358885
C2	        14.5780973939782        -3.9375511772624      -0.448979863654239
C3	        15.6456372348423       -3.13114966834508       0.286649488758951
C3	        7.41858176882438        18.4511419959784        17.2219203493699
C2	        6.83414703113761        17.8984271201369        15.9244438797545
C2	        6.39226140735154        16.4060731553783        15.7381683469912
C2	        5.69107034715096        16.2171410661178        14.4378192755386
C3	        4.30365655493508        16.9452211685593        14.0903074797496
C3	        4.77283223083522        9.78511989915038        3.69356875630928
C2	        5.08942167519243        9.75712356672186        5.17499229223392
C2	        6.48272436247067        9.12950285433414        5.36351559252005
C2	        6.54004167395596        7.82030781788424        4.62768112575168
C3	        7.91316604526478        7.12978065253107        4.86128170898504
C3	        -6.2438463873667        6.17980358363875        6.99843935730003
C2	       -5.69130434402479        4.84066116042873        6.61928433887263
C2	        -4.1588567661812         4.7419950600037        6.70792501166113
C2	       -3.50717727842871        3.49532676408766        6.01181709018195
C3	       -2.18202418196499        3.65110729926994        5.44047764923901
C3	        8.92608909159932        9.69065128841158        14.1111901559586
C2	        9.80449856532585        9.67339471859816         12.783845059615
C2	        8.91183716565481        8.97433393827304        11.8102680669836
C2	        7.56941747945963        9.59547636559825        11.5856185913229
C3	         6.8237800912982        8.86811662504235        10.4875212845396
C3	       -3.90882581010126        9.28577903381475        7.96500040246052
C2	       -4.74563201022187        10.0737690360007         6.9775129143586
C2	       -3.97406640571625        11.3895138915165        6.60506287243924
C2	       -3.78474446164032        12.0376921852291        8.05068306266714
C3	       -3.20049339577448        13.3931913005566        7.92697577737669
C3	        11.4196219303073        14.4915455248181        17.2690184562665
C2	        10.6675044272421        15.7629155807731        16.8860368604182
C2	        11.1566250139874        16.8682649673903        17.7803076971473
C2	         11.077675337043        16.4347531439041        19.2242250610568
C3	        11.3460705972426        17.5968209787556        20.1318920803621
C3	        13.5009276094868       -2.30171224375596        13.1036078220447
C2	        12.2540187279319       -3.04711573996403        13.0012095531394
C2	        11.0514982425203       -2.24838978572899        13.3420107910896
C2	         9.7110730201464       -2.82377196636817        13.0059382739274
C3	          9.672535637822       -4.22117738798085        13.4586030725793
C3	        15.8824260812242        10.4767568897243        10.4440876129513
C2	        14.6444528308243        10.6098942747494        11.3527564985914
C2	        14.4610651921073        9.43628104103691        12.2972613291604
C2	        13.5418181107543        9.52687939657611        13.5555426312495
C3	        13.7443520736986        10.7923254971177        14.3874481104955
C3	      -0.175112710118682        14.0443090091978      -0.591116189518373
C2	       -1.06873180432687        15.0477382161562       -1.45724701688207
C2	       -2.50377684519609        14.5505302471052         -1.788161453077
C2	       -2.26135369217404        13.6134379716739       -2.99613700778323
C3	       -1.67896521864508        14.3650780500746        -4.2472008123665
C3	        6.82832722563778       0.279706559656413       -1.69470044652164
C2	        5.96024141487181       0.331031876184177       -2.95513058064007
C2	        4.54532593894091      -0.337184481055848       -2.76350990592893
C2	         3.8955653032134       0.106493589160032       -1.44412496147578
C3	        2.50875853701316      -0.377893326679038        -1.3108305831503
C3	       -1.58304769072095      -0.324189758801364        6.33053328180983
C2	       -1.47323455397228       -1.83515109499875        6.56447048053022
C2	      -0.764560523117664       -2.54402298996721        5.47503297986361
C2	       0.465954157590795       -1.75741104056883         4.9489498554175
C3	        1.36138974940427        -2.5715750071423        4.21643932887173
C3	        1.81911086117917        13.0285226205423        16.4313578694665
C2	        1.15028123260731        12.8275866345805        15.0032965871683
C2	       0.807460890878841        13.9864755816461        14.0690526585394
C2	       0.245518512983432        15.1523490375851        14.9436842980429
C3	     -0.0103839275914451        16.3185355761285        13.9942573830937
C3	        12.7416291545997        13.6077275118338        11.9321381829615
C2	        11.6490306103663        13.7783045829023        12.9507789983704
C2	        10.5468796891967        14.8191821925053        12.5363380138143
C2	         9.4460463858811         14.921618460083        13.6548693711853
C3	        8.78266359751967        13.6360819238707        13.8539306482234
C3	        12.1688297881604        9.85366728655292        8.69205093260789
C2	        11.1604510519235        8.86597481279462        8.12098623080493
C2	        11.9118550782341        7.75151913953949        7.50367241444224
C2	        12.6104518207908        6.88958738115171        8.54451064479165
C3	        11.6176517849454        6.23610434292562        9.53190556037873
C3	        5.68838944814886        8.54566267271884       -4.30586945018184
C2	        5.84775763304272         8.2207461697513        -2.9002348113155
C2	         4.7623655911315        7.16171134108069       -2.47358407970334
C2	        4.65143153854821         5.9150684638078       -3.35582449838796
C3	        3.81050980098127        4.79590834766331       -2.88102104717598
C3	        3.05377032151848        4.55198070921147        12.4109182489071
C2	        1.98943364125399        3.72593389505857        13.1740244869924
C2	        2.38138472526923        2.88032885747106        14.3526757172366
C2	        3.03651871277069        3.71850206665947        15.4311666612277
C3	        3.83179005236801         2.8340000918754        16.3361278587352
C3	       0.430070333592822        10.5853096085023        4.70334150299242
C2	       0.600383077166983        10.3442461803389        6.22655029863109
C2	        1.22858921423151        11.6277069142146        6.77561778190294
C2	        1.35193983475143        11.5240327626759        8.26480931995402
C3	        0.99469422551824        12.7871848463263        9.06692733124659
C3	        4.11750122127468        18.4618205018003        6.41006507203532
C2	        4.20664892741182        18.4055033689346        4.90650298764935
C2	        4.11924951935995        16.9423306948182        4.48788150934804
C2	         2.8476361771801        16.2273048884865        5.08240145191011
C3	        2.81410659595121        14.8017383867804        4.65050981218639
C3	       -1.24715183476388        16.7499018802675        8.61600134617244
C2	      -0.210401456302284        17.5673260669432        9.50892772255401
C2	         1.0669266861177        17.5686439382097        8.66795652668054
C2	        2.24129461374359        18.0882857351169        9.64231347992216
C3	        2.57527284031617        17.0909461794239        10.7515356848297
C3	        10.2457159931982        9.36341213862557        1.74155864741546
C2	        11.2169624105864        10.3733281212307        2.28982325010949
C2	        11.7969368847401        10.0084197784062        3.71967023712015
C2	        12.7997180924281        11.0859380696118        4.05367778283099
C3	        13.7101900319072        10.5876907257695        5.21195920397737
C3	        4.63544272598308        3.93283240102159         4.8561092463887
C2	        4.20339449013132        4.51806317952211        6.20569363837891
C2	        2.86710120796813        5.11804826144645        6.00978092897317
C2	        2.83883184774796        5.91382017890314        4.81857310447153
C3	        1.37574232555419        6.36952206639835        4.55202154281632
C3	        15.1883112011893        3.97848765309723        10.2088119785473
C2	        15.5200390561275        2.53103800349894        10.5465207526155
C2	        15.8750422856097        1.82494022076434         9.1988835218556
C2	        14.7095872471557         1.9626834159379        8.26990897426354
C3	        13.5287099779035        1.07728637316009        8.56996551936301
C3	        12.9278763929654        5.81213363817957        3.19907212441183
C2	         12.958844516743        5.49718887755287        1.74858504624927
C2	        12.6182177319847        3.96627620376615        1.74366251131864
C2	        12.5468707858499        3.37206674504619       0.389316088098804
C3	        13.7846676075027        3.53038687332506      -0.463340469592919
C3	        4.02495620599424      0.0283290129479367        8.35659987591267
C2	        2.69776300880417        0.26935721218503        9.13674668857477
C2	        1.83465449414942        1.27882480207567        8.37273019895341
C2	        1.91154569199064        1.05668435535527        6.84522321012439
C3	       0.975585213450868        1.92973366912602        6.00568809484859
C3	        13.9695995916315       -2.91432044915757        17.9768367754061
C2	        14.1742858036815       -1.56348426730027        17.3861808987561
C2	        15.4303714853975      -0.951765098634807        17.9871264969769
C2	        15.4917773276667       0.533727594063681        17.6663321423404
C3	        14.3525691475343        1.33996556030099        18.4124250454531
C3	        15.2149572958331        10.3158128963789       -1.12437637516333
C2	        14.4242724852267        9.63999657129038       -2.26032507516857
C2	        15.3701090170494         9.1734735956921       -3.26102194431358
C2	        16.1420129783366        10.3999773732937        -3.8326377016195
C3	        16.9066264421843         10.208541623564       -5.16524904204686
C3	        11.3664390180705        16.4580767892035        8.33185834699348
C2	         11.606377042799        17.4084377931142        9.51196221667983
C2	        12.4145082905743        18.6121790041422        9.06536304786422
C2	        11.6547283907068        19.2589877284402        7.90358962072759
C3	        12.4159894105868        20.4750781614737         7.3558086780436
C3	        18.0413398033851        4.31404069439424        1.74704011738056
C2	        18.0970033433625          5.683091126691        2.48006284580195
C2	        16.6883362252565        6.23903105727616        2.24456326100078
C2	        16.0437683772478        7.26007774952616        3.19403861982534
C3	        16.7025226733633        8.58495748629701        2.94120268385194
C3	       -2.48277879650294        8.25676760243544        4.21757551956038
C2	       -1.80514513273207        8.76115567763105         3.0149125185932
C2	       -2.93209537135872        9.31229008941801        2.16483477453264
C2	       -2.34372689546259        9.70322820398881        0.78739350503465
C3	       -3.15665367047606        10.6249718596868      -0.136837436152402
C3	       -3.25763664393149       -4.81556294914843        13.2603184077937
C2	       -4.04253969408561       -3.62460728437932        12.6496925733195
C2	       -4.31602869247269       -2.53410024756341        13.7250138986122
C2	       -5.29885577302445       -1.63023342116301        13.0481936183205
C3	       -5.42863395319112      -0.302124029510387        13.6699017826031
C3	        2.31090983270112        17.7595937449318        1.34456917895029
C2	        3.39375794853104        18.7641413192717       0.867738252672589
C2	        4.73941550798302         18.052997373955       0.721924435162984
C2	        4.76999976287203        16.8195975654798      -0.176235662537113
C3	        6.17799506800905        16.3159483328037      -0.131943777701694
C3	        13.7223506915847        2.72802162637577        14.6735414719136
C2	        14.2265118067433        4.08733724878267        14.1602638099526
C2	        13.1273581436809         4.6691083030856        13.3076863464472
C2	        11.6911785794527        5.08918041982985        13.8889006691279
C3	        11.6658616568689         6.2503118640539        14.8574770314223
C3	        12.3740597247519        16.2030749662185        4.69708218767799
C2	        13.7264096894001        16.0660501470698         5.4526480597087
C2	        14.7694632489835        15.5323994407529        4.51085723420518
C2	        16.0818588456838        15.2283976211022        5.14314606932432
C3	        16.9213333649669        14.4910668569764        4.18480929542505
C3	        5.14319349354426        12.9108899730509        12.9209355474148
C2	        5.94324044607565        13.6680759978061        11.8152072204302
C2	        4.95229754953945        13.6538095195717        10.5403325062964
C2	        5.95092446531554        13.9435549194771        9.42433174218808
C3	        5.14477549304452        14.1621747089307        8.10009673516789
C3	       -3.08662120965578       -3.75275332595659        17.1726144975504
C2	        -4.0357235473117       -2.84219404275647         18.045705085116
C2	       -4.35002281634386       -3.29773954450229        19.5480769056974
C2	       -4.88944161872482       -4.67627070125048        19.7238103854389
C3	       -6.19885539742733       -4.86366919357173        18.9794986026052
C3	        17.5143631468668       -1.65051137819369        8.83488496550943
C2	        17.2071413354868       -1.47509176460128        7.31455779229468
C2	        17.7926306276499       -2.66409552840197        6.67525481336902
C2	        17.2110667833301       -2.77401422651475        5.31796814220292
C3	        18.0227782570598       -3.53785900977513        4.23975743029581
