309
Ioncrystal Generator, (C) 2002, matthey@ii.uib.no, Jan 26 2004. ioncrystalGenerator 309ca -numsteps 50000 -outputfreq 1 -bcc -3d -ftemp 1e-8 -temp 0.02 -thermal 1e-4 -w 2.6e-9 -s -p 0.0 309 CA 40.08 1.0
CA 0 0 0
CA -81281.0 -81281.0 -81281.0
CA -81281.0 -81281.0 81281.0
CA -81281.0 81281.0 -81281.0
CA -81281.0 81281.0 81281.0
CA 81281.0 -81281.0 -81281.0
CA 81281.0 -81281.0 81281.0
CA 81281.0 81281.0 -81281.0
CA 81281.0 81281.0 81281.0
CA -162562.0 0 0
CA 0 -162562.0 0
CA 0 0 -162562.0
CA 0 0 162562.0
CA 0 162562.0 0
CA 162562.0 0 0
CA -162562.0 -162562.0 0
CA -162562.0 0 -162562.0
CA -162562.0 0 162562.0
CA -162562.0 162562.0 0
CA 0 -162562.0 -162562.0
CA 0 -162562.0 162562.0
CA 0 162562.0 -162562.0
CA 0 162562.0 162562.0
CA 162562.0 -162562.0 0
CA 162562.0 0 -162562.0
CA 162562.0 0 162562.0
CA 162562.0 162562.0 0
CA -243843.0 -81281.0 -81281.0
CA -243843.0 -81281.0 81281.0
CA -243843.0 81281.0 -81281.0
CA -243843.0 81281.0 81281.0
CA -81281.0 -243843.0 -81281.0
CA -81281.0 -243843.0 81281.0
CA -81281.0 -81281.0 -243843.0
CA -81281.0 -81281.0 243843.0
CA -81281.0 81281.0 -243843.0
CA -81281.0 81281.0 243843.0
CA -81281.0 243843.0 -81281.0
CA -81281.0 243843.0 81281.0
CA 81281.0 -243843.0 -81281.0
CA 81281.0 -243843.0 81281.0
CA 81281.0 -81281.0 -243843.0
CA 81281.0 -81281.0 243843.0
CA 81281.0 81281.0 -243843.0
CA 81281.0 81281.0 243843.0
CA 81281.0 243843.0 -81281.0
CA 81281.0 243843.0 81281.0
CA 243843.0 -81281.0 -81281.0
CA 243843.0 -81281.0 81281.0
CA 243843.0 81281.0 -81281.0
CA 243843.0 81281.0 81281.0
CA -162562.0 -162562.0 -162562.0
CA -162562.0 -162562.0 162562.0
CA -162562.0 162562.0 -162562.0
CA -162562.0 162562.0 162562.0
CA 162562.0 -162562.0 -162562.0
CA 162562.0 -162562.0 162562.0
CA 162562.0 162562.0 -162562.0
CA 162562.0 162562.0 162562.0
CA -325124.0 0 0
CA 0 -325124.0 0
CA 0 0 -325124.0
CA 0 0 325124.0
CA 0 325124.0 0
CA 325124.0 0 0
CA -243843.0 -243843.0 -81281.0
CA -243843.0 -243843.0 81281.0
CA -243843.0 243843.0 -81281.0
CA -243843.0 243843.0 81281.0
CA 243843.0 -243843.0 -81281.0
CA 243843.0 -243843.0 81281.0
CA 243843.0 243843.0 -81281.0
CA 243843.0 243843.0 81281.0
CA -243843.0 -81281.0 -243843.0
CA -243843.0 -81281.0 243843.0
CA -243843.0 81281.0 -243843.0
CA -243843.0 81281.0 243843.0
CA -81281.0 -243843.0 -243843.0
CA -81281.0 -243843.0 243843.0
CA -81281.0 243843.0 -243843.0
CA -81281.0 243843.0 243843.0
CA 81281.0 -243843.0 -243843.0
CA 81281.0 -243843.0 243843.0
CA 81281.0 243843.0 -243843.0
CA 81281.0 243843.0 243843.0
CA 243843.0 -81281.0 -243843.0
CA 243843.0 -81281.0 243843.0
CA 243843.0 81281.0 -243843.0
CA 243843.0 81281.0 243843.0
CA -325124.0 -162562.0 0
CA -325124.0 0 -162562.0
CA -325124.0 0 162562.0
CA -325124.0 162562.0 0
CA -162562.0 -325124.0 0
CA -162562.0 0 -325124.0
CA -162562.0 0 325124.0
CA -162562.0 325124.0 0
CA 0 -325124.0 -162562.0
CA 0 -325124.0 162562.0
CA 0 -162562.0 -325124.0
CA 0 -162562.0 325124.0
CA 0 162562.0 -325124.0
CA 0 162562.0 325124.0
CA 0 325124.0 -162562.0
CA 0 325124.0 162562.0
CA 162562.0 -325124.0 0
CA 162562.0 0 -325124.0
CA 162562.0 0 325124.0
CA 162562.0 325124.0 0
CA 325124.0 -162562.0 0
CA 325124.0 0 -162562.0
CA 325124.0 0 162562.0
CA 325124.0 162562.0 0
CA -325124.0 -162562.0 -162562.0
CA -325124.0 -162562.0 162562.0
CA -325124.0 162562.0 -162562.0
CA -325124.0 162562.0 162562.0
CA -162562.0 -325124.0 -162562.0
CA -162562.0 -325124.0 162562.0
CA -162562.0 -162562.0 -325124.0
CA -162562.0 -162562.0 325124.0
CA -162562.0 162562.0 -325124.0
CA -162562.0 162562.0 325124.0
CA -162562.0 325124.0 -162562.0
CA -162562.0 325124.0 162562.0
CA 162562.0 -325124.0 -162562.0
CA 162562.0 -325124.0 162562.0
CA 162562.0 -162562.0 -325124.0
CA 162562.0 -162562.0 325124.0
CA 162562.0 162562.0 -325124.0
CA 162562.0 162562.0 325124.0
CA 162562.0 325124.0 -162562.0
CA 162562.0 325124.0 162562.0
CA 325124.0 -162562.0 -162562.0
CA 325124.0 -162562.0 162562.0
CA 325124.0 162562.0 -162562.0
CA 325124.0 162562.0 162562.0
CA -81281.0 -81281.0 406405.0
CA -81281.0 81281.0 406405.0
CA -81281.0 406405.0 -81281.0
CA -81281.0 406405.0 81281.0
CA 81281.0 -81281.0 406405.0
CA 81281.0 81281.0 406405.0
CA 81281.0 406405.0 -81281.0
CA 81281.0 406405.0 81281.0
CA 406405.0 -81281.0 -81281.0
CA 406405.0 -81281.0 81281.0
CA 406405.0 81281.0 -81281.0
CA 406405.0 81281.0 81281.0
CA -406405.0 -81281.0 -81281.0
CA -406405.0 -81281.0 81281.0
CA -406405.0 81281.0 -81281.0
CA -406405.0 81281.0 81281.0
CA -243843.0 -243843.0 -243843.0
CA -243843.0 -243843.0 243843.0
CA -243843.0 243843.0 -243843.0
CA -243843.0 243843.0 243843.0
CA -81281.0 -406405.0 -81281.0
CA -81281.0 -406405.0 81281.0
CA -81281.0 -81281.0 -406405.0
CA -81281.0 81281.0 -406405.0
CA 81281.0 -406405.0 -81281.0
CA 81281.0 -406405.0 81281.0
CA 81281.0 -81281.0 -406405.0
CA 81281.0 81281.0 -406405.0
CA 243843.0 -243843.0 -243843.0
CA 243843.0 -243843.0 243843.0
CA 243843.0 243843.0 -243843.0
CA 243843.0 243843.0 243843.0
CA -325124.0 -325124.0 0
CA -325124.0 0 -325124.0
CA -325124.0 0 325124.0
CA -325124.0 325124.0 0
CA 0 -325124.0 -325124.0
CA 0 -325124.0 325124.0
CA 0 325124.0 -325124.0
CA 0 325124.0 325124.0
CA 325124.0 -325124.0 0
CA 325124.0 0 -325124.0
CA 325124.0 0 325124.0
CA 325124.0 325124.0 0
CA -243843.0 -81281.0 406405.0
CA -243843.0 81281.0 406405.0
CA -243843.0 406405.0 -81281.0
CA -243843.0 406405.0 81281.0
CA -81281.0 -243843.0 406405.0
CA -81281.0 243843.0 406405.0
CA -81281.0 406405.0 -243843.0
CA -81281.0 406405.0 243843.0
CA 81281.0 -243843.0 406405.0
CA 81281.0 243843.0 406405.0
CA 81281.0 406405.0 -243843.0
CA 81281.0 406405.0 243843.0
CA 243843.0 -81281.0 406405.0
CA 243843.0 81281.0 406405.0
CA 243843.0 406405.0 -81281.0
CA 243843.0 406405.0 81281.0
CA 406405.0 -243843.0 -81281.0
CA 406405.0 -243843.0 81281.0
CA 406405.0 -81281.0 -243843.0
CA 406405.0 -81281.0 243843.0
CA 406405.0 81281.0 -243843.0
CA 406405.0 81281.0 243843.0
CA 406405.0 243843.0 -81281.0
CA 406405.0 243843.0 81281.0
CA -406405.0 -243843.0 -81281.0
CA -406405.0 -243843.0 81281.0
CA -406405.0 -81281.0 -243843.0
CA -406405.0 -81281.0 243843.0
CA -406405.0 81281.0 -243843.0
CA -406405.0 81281.0 243843.0
CA -406405.0 243843.0 -81281.0
CA -406405.0 243843.0 81281.0
CA -243843.0 -406405.0 -81281.0
CA -243843.0 -406405.0 81281.0
CA -243843.0 -81281.0 -406405.0
CA -243843.0 81281.0 -406405.0
CA -81281.0 -406405.0 -243843.0
CA -81281.0 -406405.0 243843.0
CA -81281.0 -243843.0 -406405.0
CA -81281.0 243843.0 -406405.0
CA 81281.0 -406405.0 -243843.0
CA 81281.0 -406405.0 243843.0
CA 81281.0 -243843.0 -406405.0
CA 81281.0 243843.0 -406405.0
CA 243843.0 -406405.0 -81281.0
CA 243843.0 -406405.0 81281.0
CA 243843.0 -81281.0 -406405.0
CA 243843.0 81281.0 -406405.0
CA -325124.0 -325124.0 -162562.0
CA -325124.0 -325124.0 162562.0
CA -325124.0 -162562.0 -325124.0
CA -325124.0 -162562.0 325124.0
CA -325124.0 162562.0 -325124.0
CA -325124.0 162562.0 325124.0
CA -325124.0 325124.0 -162562.0
CA -325124.0 325124.0 162562.0
CA -162562.0 -325124.0 -325124.0
CA -162562.0 -325124.0 325124.0
CA -162562.0 325124.0 -325124.0
CA -162562.0 325124.0 325124.0
CA 162562.0 -325124.0 -325124.0
CA 162562.0 -325124.0 325124.0
CA 162562.0 325124.0 -325124.0
CA 162562.0 325124.0 325124.0
CA 325124.0 -325124.0 -162562.0
CA 325124.0 -325124.0 162562.0
CA 325124.0 -162562.0 -325124.0
CA 325124.0 -162562.0 325124.0
CA 325124.0 162562.0 -325124.0
CA 325124.0 162562.0 325124.0
CA 325124.0 325124.0 -162562.0
CA 325124.0 325124.0 162562.0
CA -487686.0 0 0
CA 0 -487686.0 0
CA 0 0 -487686.0
CA 0 0 487686.0
CA 0 487686.0 0
CA 487686.0 0 0
CA -487686.0 -162562.0 0
CA -487686.0 0 -162562.0
CA -487686.0 0 162562.0
CA -487686.0 162562.0 0
CA -162562.0 -487686.0 0
CA -162562.0 0 -487686.0
CA -162562.0 0 487686.0
CA -162562.0 487686.0 0
CA 0 -487686.0 -162562.0
CA 0 -487686.0 162562.0
CA 0 -162562.0 -487686.0
CA 0 -162562.0 487686.0
CA 0 162562.0 -487686.0
CA 0 162562.0 487686.0
CA 0 487686.0 -162562.0
CA 0 487686.0 162562.0
CA 162562.0 -487686.0 0
CA 162562.0 0 -487686.0
CA 162562.0 0 487686.0
CA 162562.0 487686.0 0
CA 487686.0 -162562.0 0
CA 487686.0 0 -162562.0
CA 487686.0 0 162562.0
CA 487686.0 162562.0 0
CA -243843.0 -243843.0 406405.0
CA -243843.0 243843.0 406405.0
CA 243843.0 -243843.0 406405.0
CA 243843.0 243843.0 406405.0
CA -406405.0 -243843.0 -243843.0
CA -406405.0 -243843.0 243843.0
CA -406405.0 243843.0 -243843.0
CA -406405.0 243843.0 243843.0
CA -243843.0 -406405.0 -243843.0
CA -243843.0 -406405.0 243843.0
CA -243843.0 -243843.0 -406405.0
CA -243843.0 243843.0 -406405.0
CA -243843.0 406405.0 -243843.0
CA -243843.0 406405.0 243843.0
CA 243843.0 -406405.0 -243843.0
CA 243843.0 -406405.0 243843.0
CA 243843.0 -243843.0 -406405.0
CA 243843.0 243843.0 -406405.0
CA 243843.0 406405.0 -243843.0
CA 243843.0 406405.0 243843.0
CA 406405.0 -243843.0 -243843.0
CA 406405.0 -243843.0 243843.0
CA 406405.0 243843.0 -243843.0
CA 406405.0 243843.0 243843.0
CA -487686.0 -162562.0 -162562.0
CA -487686.0 -162562.0 162562.0
